% Model:              quad9_benchmark.mph
% Version:            COMSOL 5.6.0.280
% Date:               Aug 11 2021, 18:26
% Table:              Table 1 - Point Evaluation 1
% Time (s)                                        Displacement field, Y component (m), Point: 3
0                                                 3.5995836266604124E-8
1.0E-4                                            9.238432292459612E-5
2.0E-4                                            2.6075280576118873E-4
3.0000000000000003E-4                             4.7880537821832196E-4
4.0E-4                                            7.369158764864564E-4
5.0E-4                                            0.0010295381991677955
6.000000000000001E-4                              0.0013529976044618082
7.0E-4                                            0.0017046438046043736
8.0E-4                                            0.002082423159718711
9.000000000000001E-4                              0.002484655203509051
0.001                                             0.0029099241773066324
0.0011                                            0.0033570270079352513
0.0012000000000000001                             0.0038249329719161184
0.0013000000000000002                             0.004312756243387459
0.0014                                            0.004819718670938039
0.0015                                            0.005345127024556192
0.0016                                            0.0058883550111455945
0.0017000000000000001                             0.006448830882873465
0.0018000000000000002                             0.007028067675068006
0.0019                                            0.007621500503834827
0.002                                             0.008230682888611509
0.0021000000000000003                             0.008855005798809932
0.0022                                            0.009494651886145414
0.0023                                            0.010150797032660233
0.0024000000000000002                             0.01082212381898931
0.0025                                            0.011501587815320303
0.0026000000000000003                             0.012185186037866393
0.0027                                            0.012887483261890672
0.0028                                            0.013631790961969963
0.0029000000000000002                             0.014401982169002507
0.003                                             0.015165829633598554
0.0031000000000000003                             0.015923333355758105
0.0032                                            0.01666478894621473
0.0033                                            0.017390196404968434
0.0034000000000000002                             0.018150069633396018
0.0035                                            0.01894440863149748
0.0036000000000000003                             0.0197854090065692
0.0037                                            0.020673070758611176
0.0038                                            0.021580725552585688
0.0039000000000000003                             0.02250837338849274
0.004                                             0.023436001883803976
0.0041                                            0.024363611038519396
0.004200000000000001                              0.025270823473014063
0.0043                                            0.026157639187287973
0.0044                                            0.027023281751974833
0.0045000000000000005                             0.027867751167074642
0.0046                                            0.028707948791544518
0.0047                                            0.02954387462538449
0.0048000000000000004                             0.03038752221555082
0.0049                                            0.031238891562043517
0.005                                             0.032113663793607056
0.0051                                            0.03301183891024142
0.005200000000000001                              0.033943749670671056
0.0053                                            0.03490939607489593
0.0054                                            0.035910281273735384
0.0055000000000000005                             0.0369464052671894
0.0056                                            0.03801904167518163
0.0057                                            0.039128190497712094
0.0058000000000000005                             0.04026822887287992
0.0059                                            0.04143915680068505
0.006                                             0.04263423261101966
0.0061                                            0.04385345630388371
0.006200000000000001                              0.045090494642923105
0.0063                                            0.046345347628137835
0.0064                                            0.047609299141364525
0.006500000000000001                              0.048882349182603146
0.0066                                            0.050159192188597455
0.0067                                            0.051439828159347466
0.0068000000000000005                             0.05271758232485099
0.006900000000000001                              0.05399245468510803
0.007                                             0.0552555401547547
0.0071                                            0.05650683873379104
0.007200000000000001                              0.05774150117768624
0.0073                                            0.05895952748644029
0.0074                                            0.060165473097682005
0.007500000000000001                              0.0613593380114114
0.0076                                            0.06255349533913948
0.0077                                            0.06374794508086626
0.0078000000000000005                             0.06493980458313488
0.0079                                            0.06612907384594531
0.008                                             0.06728824859058044
0.0081                                            0.06841732881704025
0.0082                                            0.0694965926170443
0.0083                                            0.07052603999059258
0.008400000000000001                              0.07152727185830937
0.0085                                            0.07250028822019466
0.0086                                            0.07348522529375934
0.008700000000000001                              0.0744820830790034
0.0088                                            0.07550202865475969
0.0089                                            0.07654506202102822
0.009000000000000001                              0.07759730523477928
0.0091                                            0.07865875829601288
0.0092                                            0.07972372978305196
0.009300000000000001                              0.08079221969589659
0.0094                                            0.0818615019819811
0.0095                                            0.08293157664130552
0.009600000000000001                              0.08398774729865366
0.0097                                            0.08503001395402549
0.0098                                            0.08605015075179859
0.0099                                            0.08704815769197295
0.01                                              0.08803218581471292
0.010100000000000001                              0.08900223512001855
0.0102                                            0.08996497260164389
0.0103                                            0.09092039825958904
0.010400000000000001                              0.09187314476865432
0.0105                                            0.09282321212883976
0.0106                                            0.09378447286863725
0.010700000000000001                              0.09475692698804687
0.0108                                            0.09575176390141377
0.0109                                            0.09676898360873798
0.011000000000000001                              0.09781140073971321
0.0111                                            0.09887901529433944
0.0112                                            0.09997882255512437
0.011300000000000001                              0.10111082252206803
0.0114                                            0.10228287963110243
0.0115                                            0.10349499388222758
0.011600000000000001                              0.10474663054614128
0.0117                                            0.10603778962284349
0.0118                                            0.10736844908896229
0.0119                                            0.10873860894449765
0.012                                             0.11010876880003304
0.012100000000000001                              0.1114789286555684
0.0122                                            0.11287733549085666
0.0123                                            0.1143039893058978
0.012400000000000001                              0.11573064312093893
0.0125                                            0.11715729693598008
0.0126                                            0.11861410057842273
0.012700000000000001                              0.12010105404826692
0.0128                                            0.12158800751811105
0.0129                                            0.12307496098795523
0.013000000000000001                              0.12460127638198813
0.0131                                            0.12616695370020972
0.0132                                            0.1277326310184313
0.013300000000000001                              0.12929830833665293
0.0134                                            0.13085825537925994
0.0135                                            0.13241247214625232
0.013600000000000001                              0.13396668891324476
0.0137                                            0.13552090568023714
0.013800000000000002                              0.13704201911868014
0.013900000000000001                              0.1385300292285737
0.014                                             0.1400180393384672
0.014100000000000001                              0.1415060494483608
0.0142                                            0.14301579336811962
0.0143                                            0.14454727109774382
0.014400000000000001                              0.146078748827368
0.0145                                            0.14761022655699219
0.0146                                            0.14921027522586164
0.014700000000000001                              0.15087889483397635
0.0148                                            0.15254751444209105
0.0149                                            0.1542161340502058
0.015000000000000001                              0.15594173415964224
0.0151                                            0.1577243147704004
0.0152                                            0.15950689538115853
0.015300000000000001                              0.1612894759919167
0.0154                                            0.1631114655839544
0.0155                                            0.16497286415727153
0.015600000000000001                              0.16683426273058877
0.015700000000000002                              0.1686956613039059
0.0158                                            0.1705879215045723
0.0159                                            0.17251104333258793
0.016                                             0.17443416516060356
0.0161                                            0.1763572869886192
0.0162                                            0.17830945322204111
0.016300000000000002                              0.1802906638608695
0.0164                                            0.18227187449969776
0.0165                                            0.18425308513852603
0.0166                                            0.18628739699601649
0.0167                                            0.18837481007216902
0.016800000000000002                              0.1904622231483217
0.016900000000000002                              0.19254963622447427
0.017                                             0.19471366883196603
0.0171                                            0.19695432097079696
0.0172                                            0.19919497310962792
0.0173                                            0.2014356252484589
0.017400000000000002                              0.20375251439602318
0.0175                                            0.20614564055232062
0.0176                                            0.20853876670861815
0.0177                                            0.2109318928649156
0.0178                                            0.2133880113926522
0.0179                                            0.21590712229182787
0.018000000000000002                              0.21842623319100365
0.0181                                            0.22094534409017935
0.0182                                            0.22349834743811609
0.0183                                            0.2260852432348139
0.0184                                            0.2286721390315117
0.018500000000000003                              0.2312590348282096
0.018600000000000002                              0.2338515169660374
0.0187                                            0.23644958544499517
0.0188                                            0.23904765392395294
0.0189                                            0.2416457224029107
0.019                                             0.2442405020365978
0.019100000000000002                              0.24683199282501433
0.019200000000000002                              0.24942348361343078
0.0193                                            0.2520149744018472
0.0194                                            0.25458388843386737
0.0195                                            0.25713022570949123
0.0196                                            0.25967656298511516
0.019700000000000002                              0.2622229002607391
0.0198                                            0.26471533096502153
0.0199                                            0.26715385509796263
0.02                                              0.2695923792309037
0.0201                                            0.27203090336384467
0.020200000000000003                              0.274421750297198
0.020300000000000002                              0.2767649200309634
0.0204                                            0.2791080897647288
0.0205                                            0.2814512594984942
0.0206                                            0.28379622995563675
0.0207                                            0.2861430011361565
0.020800000000000003                              0.2884897723166763
0.020900000000000002                              0.290836543497196
0.021                                             0.29321542920280425
0.0211                                            0.29562642943350087
0.0212                                            0.2980374296641976
0.0213                                            0.3004484298948943
0.021400000000000002                              0.30286320571282244
0.021500000000000002                              0.3052817571179819
0.0216                                            0.30770030852314134
0.0217                                            0.3101188599283008
0.0218                                            0.31250493330301965
0.0219                                            0.3148585286472979
0.022000000000000002                              0.31721212399157617
0.0221                                            0.31956571933585437
0.0222                                            0.32189299630675156
0.0223                                            0.3241939549042677
0.0224                                            0.32649491350178383
0.022500000000000003                              0.32879587209930006
0.022600000000000002                              0.33108731881254577
0.0227                                            0.33336925364152115
0.0228                                            0.33565118847049646
0.0229                                            0.33793312329947184
0.023                                             0.34021120549017203
0.023100000000000002                              0.34248543504259726
0.023200000000000002                              0.34475966459502244
0.0233                                            0.3470338941474475
0.0234                                            0.34931544808679155
0.0235                                            0.3516043264130546
0.0236                                            0.3538932047393177
0.023700000000000002                              0.3561820830655808
0.0238                                            0.35847552914408715
0.0239                                            0.36077354297483694
0.024                                             0.3630715568055867
0.0241                                            0.36536957063633646
0.024200000000000003                              0.3676423966210267
0.024300000000000002                              0.3698900347596573
0.0244                                            0.3721376728982879
0.0245                                            0.37438531103691847
0.0246                                            0.3765866565429691
0.0247                                            0.37874170941643975
0.024800000000000003                              0.38089676228991054
0.024900000000000002                              0.38305181516338116
0.025                                             0.38515887800896265
0.0251                                            0.3872179508266547
0.0252                                            0.38927702364434674
0.0253                                            0.39133609646203876
0.025400000000000002                              0.3933398052852953
0.025500000000000002                              0.39528815011411605
0.0256                                            0.39723649494293684
0.0257                                            0.39918483977175756
0.0258                                            0.40106584724483746
0.025900000000000003                              0.4028795173621764
0.026000000000000002                              0.40469318747951527
0.0261                                            0.4065068575968541
0.0262                                            0.4082616807437029
0.0263                                            0.40995765692006164
0.0264                                            0.4116536330964205
0.026500000000000003                              0.4133496092727793
0.026600000000000002                              0.4150261261460572
0.0267                                            0.4166831837162541
0.0268                                            0.4183402412864511
0.0269                                            0.4199972988566481
0.027                                             0.42169868630637625
0.027100000000000003                              0.4234444036356357
0.027200000000000002                              0.4251901209648951
0.0273                                            0.42693583829415455
0.0274                                            0.42868155562341387
0.0275                                            0.4304272729526733
0.027600000000000003                              0.4321729902819328
0.027700000000000002                              0.43391870761119217
0.027800000000000002                              0.4357067578286966
0.0279                                            0.4375371409344461
0.028                                             0.4393675240401955
0.0281                                            0.4411979071459451
0.028200000000000003                              0.4430282902516946
0.028300000000000002                              0.44485867335744417
0.0284                                            0.4466890564631936
0.0285                                            0.4485194395689431
0.0286                                            0.45035325267218507
0.0287                                            0.4521904957729193
0.028800000000000003                              0.4540277388736538
0.028900000000000002                              0.4558649819743881
0.029                                             0.4577022250751224
0.0291                                            0.4595394681758567
0.0292                                            0.46137671127659113
0.029300000000000003                              0.46321395437732554
0.029400000000000003                              0.4650889494135791
0.029500000000000002                              0.46700169638535194
0.0296                                            0.46891444335712484
0.0297                                            0.4708271903288977
0.0298                                            0.4727399373006706
0.029900000000000003                              0.4746526842724436
0.030000000000000002                              0.4765654312442164
0.030100000000000002                              0.47847817821598937
0.0302                                            0.48043628153481904
0.0303                                            0.48243974120070554
0.0304                                            0.4844432008665922
0.030500000000000003                              0.4864466605324787
0.030600000000000002                              0.48845012019836537
0.0307                                            0.4904535798642519
0.0308                                            0.4924570395301384
0.0309                                            0.4944604991960251
0.031                                             0.4964511237476424
0.031100000000000003                              0.49842891318499066
0.031200000000000002                              0.5004067026223389
0.0313                                            0.5023844920596872
0.031400000000000004                              0.5043622814970354
0.0315                                            0.5063400709343835
0.0316                                            0.5083178603717318
0.0317                                            0.5102956498090799
0.0318                                            0.512233121904543
0.031900000000000005                              0.5141302766581205
0.032                                             0.516027431411698
0.032100000000000004                              0.5179245861652756
0.0322                                            0.5198217409188531
0.0323                                            0.5217188956724307
0.0324                                            0.5236160504260082
0.0325                                            0.525513205179586
0.032600000000000004                              0.5273867711397858
0.0327                                            0.529236748306608
0.0328                                            0.5310867254734303
0.0329                                            0.5329367026402525
0.033                                             0.5347866798070747
0.033100000000000004                              0.536636656973897
0.0332                                            0.5384866341407191
0.0333                                            0.5403451176057201
0.0334                                            0.5422234490998047
0.0335                                            0.5441017805938895
0.033600000000000005                              0.5459801120879744
0.0337                                            0.5478584435820589
0.033800000000000004                              0.5497367750761438
0.0339                                            0.5516151065702285
0.034                                             0.5535018909123457
0.0341                                            0.555464750886756
0.0342                                            0.5574276108611662
0.034300000000000004                              0.5593904708355766
0.0344                                            0.5613533308099867
0.0345                                            0.5633161907843971
0.0346                                            0.5652790507588072
0.0347                                            0.5672419107332175
0.034800000000000005                              0.5692481873772968
0.0349                                            0.5712592880957835
0.035                                             0.5732703888142704
0.0351                                            0.5752814895327572
0.0352                                            0.5772925902512441
0.035300000000000005                              0.5793036909697309
0.0354                                            0.5813147916882178
0.035500000000000004                              0.5832800834102257
0.0356                                            0.5852257427051711
0.0357                                            0.5871714020001166
0.0358                                            0.589117061295062
0.0359                                            0.5910627205900075
0.036000000000000004                              0.5930083798849531
0.0361                                            0.5949540391798985
0.0362                                            0.5968068404362522
0.0363                                            0.598566783654014
0.0364                                            0.6003267268717757
0.036500000000000005                              0.6020866700895376
0.0366                                            0.6038466133072993
0.0367                                            0.6056065565250611
0.0368                                            0.607366499742823
0.0369                                            0.6090637504803795
0.037000000000000005                              0.610614718764124
0.0371                                            0.6121656870478682
0.037200000000000004                              0.6137166553316128
0.0373                                            0.6152676236153571
0.0374                                            0.6168185918991015
0.0375                                            0.6183695601828458
0.0376                                            0.6199044917142765
0.037700000000000004                              0.621295092474883
0.0378                                            0.6226856932354895
0.0379                                            0.6240762939960959
0.038                                             0.6254668947567024
0.0381                                            0.6268574955173088
0.038200000000000005                              0.6282480962779153
0.0383                                            0.6296386970385217
0.038400000000000004                              0.6308495894971026
0.0385                                            0.6320405143665693
0.0386                                            0.6332314392360361
0.038700000000000005                              0.6344223641055029
0.0388                                            0.6356132889749696
0.038900000000000004                              0.6368042138444364
0.039                                             0.6379951387139031
0.0391                                            0.6390146260599723
0.0392                                            0.639960640181728
0.0393                                            0.6409066543034839
0.039400000000000004                              0.6418526684252396
0.0395                                            0.6427986825469952
0.0396                                            0.6437446966687513
0.0397                                            0.644690710790507
0.0398                                            0.6455705191308625
0.039900000000000005                              0.646384121689818
0.04                                              0.6471977242487731
0.040100000000000004                              0.6480113268077285
0.0402                                            0.6488249293666838
0.0403                                            0.649638531925639
0.040400000000000005                              0.6504521344845944
0.0405                                            0.6512592160991643
0.040600000000000004                              0.652051082176835
0.0407                                            0.6528429482545058
0.0408                                            0.6536348143321764
0.0409                                            0.6544266804098473
0.041                                             0.6552185464875181
0.041100000000000005                              0.6560104125651889
0.0412                                            0.6567957189812695
0.0413                                            0.6575219884430407
0.0414                                            0.6582482579048118
0.0415                                            0.6589745273665829
0.041600000000000005                              0.659700796828354
0.0417                                            0.6604270662901252
0.041800000000000004                              0.6611533357518963
0.0419                                            0.6618796052136673